[Molden Format]
made by pyscf v[2.6.0]
[Atoms] (AU)
H   1   1     0.00000000000000     0.00000000000000     0.00000000000000
H   2   1     2.00000000000000     0.00000000000000     0.00000000000000
H   3   1     4.00000000000000     0.00000000000000     0.00000000000000
H   4   1     6.00000000000000     0.00000000000000     0.00000000000000
[GTO]
1 0
 s    3 1.00
            3.42525091    0.15432897070298
            0.62391373    0.53532814243847
             0.1688554    0.44463454202535

2 0
 s    3 1.00
            3.42525091    0.15432897070298
            0.62391373    0.53532814243847
             0.1688554    0.44463454202535

3 0
 s    3 1.00
            3.42525091    0.15432897070298
            0.62391373    0.53532814243847
             0.1688554    0.44463454202535

4 0
 s    3 1.00
            3.42525091    0.15432897070298
            0.62391373    0.53532814243847
             0.1688554    0.44463454202535

[5d]
[7f]
[9g]

[MO]
 Sym= A
 Ene=               0
 Spin= Alpha
 Occup=    1.00000
   1      0.28977299704809
   2      0.43297978204686
   3      0.43297978204687
   4      0.28977299704809
 Sym= A
 Ene=               1
 Spin= Alpha
 Occup=    1.00000
   1      0.52688126704331
   2      0.38287797874774
   3     -0.38287797874774
   4     -0.52688126704331
 Sym= A
 Ene=               2
 Spin= Alpha
 Occup=    0.00000
   1      0.73690749601812
   2     -0.49652509005914
   3     -0.49652509005914
   4      0.73690749601812
 Sym= A
 Ene=               3
 Spin= Alpha
 Occup=    0.00000
   1     -0.63095636895152
   2       1.0466265523274
   3      -1.0466265523273
   4      0.63095636895152
